PRIMVEC
  10.714438411   0.000000000   0.000000000
   0.000000000   9.306577711   0.000000042
   0.000000000   0.000000044   9.544133915
PRIMCOORD 1
32 -100
0   2.678602791   1.544834468  -0.786721116   0.000013490   0.000001060  -0.000001340
0   8.035834708   7.761743930   0.786721149  -0.000013490  -0.000001060   0.000001340
0   8.035834708   1.544833468  -0.786721116  -0.000013490   0.000001060  -0.000001340
0   2.678602791   7.761743930   0.786721149   0.000013490  -0.000001060   0.000001340
0   0.000000000   6.198125983  -0.786722632   0.000000000   0.000004410  -0.000000810
0   0.000000000   3.108451415   0.786722665   0.000000000  -0.000004410   0.000000810
0   8.035834664   7.761744284   3.985346247  -0.000013500  -0.000001050  -0.000001370
0   2.678602835   1.544834149   5.558788039   0.000013500   0.000001050   0.000001370
0   2.678602835   7.761744284   3.985346247   0.000013500  -0.000001050  -0.000001370
0   8.035834664   1.544833149   5.558788039  -0.000013500   0.000001050   0.000001370
0   0.000000000   3.108451134   3.985345243   0.000000000  -0.000004480  -0.000000840
0   0.000000000   6.198126299   5.558789043   0.000000000   0.000004480   0.000000840
0   5.357219247   6.198119724  -0.786719821   0.000000000   0.000000610  -0.000002860
0   5.357219247   3.108457674   0.786719853   0.000000000  -0.000000610   0.000002860
0   5.357219247   3.108457365   3.985348064   0.000000000  -0.000000620  -0.000002840
0   5.357219247   6.198120068   5.558786222   0.000000000   0.000000620   0.000002840
0   0.000000000   0.012165762   2.386034026   0.000000000  -0.000007360   0.000000020
0   0.000000000  -0.012165727   7.158100227   0.000000000   0.000007360  -0.000000020
0   8.035833212   4.665451486   2.386034568  -0.000016970  -0.000006330   0.000000020
0   2.678604287   4.641126947   7.158099718   0.000016970   0.000006330  -0.000000020
0   2.678604287   4.665451486   2.386034568   0.000016970  -0.000006330   0.000000020
0   8.035833212   4.641126947   7.158099718  -0.000016970   0.000006330  -0.000000020
0   5.357219247   0.012163653   2.386033491   0.000000000  -0.000010760   0.000000030
0   5.357219247  -0.012163618   7.158100762   0.000000000   0.000010760  -0.000000030
1   2.678584194   1.567784148   2.386034216  -0.000007040  -0.000007520  -0.000000260
1   8.035853305   7.738794284   7.158100071   0.000007040   0.000007520   0.000000260
1   8.035853305   1.567783149   2.386034216   0.000007040  -0.000007520  -0.000000260
1   2.678584194   7.738794284   7.158100071  -0.000007040   0.000007520   0.000000260
1   0.000000000   6.221075092   2.386033640   0.000000000  -0.000008320  -0.000001450
1   0.000000000   3.085502341   7.158100646   0.000000000   0.000008320   0.000001450
1   5.357219247   6.221018945   2.386033689   0.000000000  -0.000018160   0.000000060
1   5.357219247   3.085558489   7.158100597   0.000000000   0.000018160  -0.000000060
PRIMVEC
  10.638330691   0.000000000   0.000000000
   0.000000000   9.228966547  -0.001504614
   0.000000000  -0.001542344   9.497880033
PRIMCOORD 2
31 1
0   2.727181746   1.554937954  -0.793055708   0.000028800   0.000046290   0.000033830
0   8.284070260   7.855086795   0.801394034  -0.000030990  -0.000069170  -0.000011140
0   7.911148039   1.554936962  -0.793055708  -0.000028800   0.000046290   0.000033830
0   2.354259525   7.855086795   0.801394034   0.000030990  -0.000069170  -0.000011140
0   0.000000000   5.989988107  -0.765556486   0.000000000  -0.000018660  -0.000010170
0   0.000000000   2.742635169   0.809532089   0.000000000  -0.000059620   0.000051720
0   8.219414055   7.831097361   3.939800926   0.000026860  -0.000056690  -0.000018330
0   2.702101395   1.554750023   5.548402106  -0.000011900   0.000079120  -0.000000270
0   2.418915730   7.831097361   3.939800926  -0.000026860  -0.000056690  -0.000018330
0   7.936228390   1.554749031   5.548402106   0.000011900   0.000079120  -0.000000270
0   0.000000000   2.768447306   3.925711595   0.000000000   0.000027370  -0.000077260
0   0.000000000   6.014577009   5.524271062   0.000000000  -0.000058060  -0.000006590
0   5.319165386   6.264756582  -0.725812706   0.000000000   0.000009920  -0.000008130
0   5.319165386   3.127933450   0.790784502   0.000000000   0.000111670   0.000001890
0   5.319165386   3.112367131   3.954972887   0.000000000   0.000103710  -0.000012240
0   5.319165386   6.227650309   5.510144519   0.000000000  -0.000082740   0.000098030
0   0.000000000  -0.035640136   7.126688848   0.000000000  -0.000033150   0.000038420
0   8.008071780   4.642309168   2.364430583  -0.000042040  -0.000056010   0.000022020
0   2.682845446   4.614066606   7.131301460  -0.000004650   0.000005520   0.000028760
0   2.630258005   4.642309168   2.364430583   0.000042040  -0.000056010   0.000022020
0   7.955484339   4.614066606   7.131301460   0.000004650   0.000005520   0.000028760
0   5.319165386  -0.029788389   2.345082917   0.000000000  -0.000040330   0.000022620
0   5.319165386  -0.015196173   7.100896735   0.000000000  -0.000040130  -0.000175070
1   2.680567575   1.552907339   2.389924714  -0.000208190   0.000071800  -0.000076270
1   7.987086305   7.676866720   7.107951335  -0.000021550  -0.000055570   0.000072090
1   7.957762210   1.552906349   2.389924714   0.000208190   0.000071800  -0.000076270
1   2.651243480   7.676866720   7.107951335   0.000021550  -0.000055570   0.000072090
1   0.000000000   6.173894678   2.391274680   0.000000000  -0.000154500   0.000116080
1   0.000000000   3.048831636   7.106495709   0.000000000   0.000045420   0.000048570
1   5.319165386   6.160923799   2.396397482   0.000000000  -0.000091890  -0.000296880
1   5.319165386   3.059923881   7.107848383   0.000000000   0.000350410   0.000107670
PRIMVEC
  10.763104251   0.000000000   0.000000000
   0.000000000   9.316778515  -0.000036320
   0.000000000  -0.000024150   9.523150147
PRIMCOORD 3
32 1
0   2.690769220   1.869515350  -0.769642816   0.000000000  -0.000001870   0.000010960
0   8.072334115   7.698917601   0.844929962   0.000000000  -0.000026150  -0.000016030
0   8.072334115   1.646285351  -0.718160857   0.000000000  -0.000039920  -0.000012350
0   2.690769220   7.926634592   0.764240774   0.000000000  -0.000001190   0.000020370
0   0.313969540   6.016965711  -0.706944916  -0.000002640   0.000005520   0.000022020
0   0.000270870   3.054892336   0.794276046   0.000036090   0.000002620   0.000023250
0   8.072334071   7.719399177   3.886450891   0.000000000   0.000049010  -0.000000380
0   2.690769264   1.833269103   5.532314495   0.000000000  -0.000071730  -0.000037070
0   2.690769264   7.903110888   3.973849412   0.000000000   0.000038630  -0.000011430
0   8.072334071   1.658172390   5.499616326   0.000000000  -0.000012350  -0.000010210
0   0.003245810   3.058477788   3.957995084   0.000026700  -0.000027740  -0.000013000
0   0.279350671   6.027760668   5.482684851   0.000002680   0.000002540  -0.000033570
0   5.067582627   6.016959445  -0.706942111   0.000002640   0.000005520   0.000022020
0   5.381281297   3.054898602   0.794273240  -0.000036090   0.000002620   0.000023250
0   5.378306358   3.058484026   3.957997899  -0.000026700  -0.000027740  -0.000013000
0   5.102201496   6.027754431   5.482682036  -0.000002680   0.000002540  -0.000033570
0  -0.007935633   0.004901478   2.365540753   0.000028130  -0.000015190  -0.000020720
0   0.048104001  -0.038880331   7.165971055   0.000011000   0.000010860   0.000028440
0   8.072332612   4.632452847   2.373177246   0.000000000   0.000019080  -0.000002410
0   8.072352796   7.761883480   7.132460800   0.000000000   0.000045770  -0.000021670
0   2.690770723   4.711733101   2.398555689   0.000000000   0.000015670   0.000054870
0   8.072332612   4.598652000   7.169458453   0.000000000   0.000090160   0.000014280
0   5.389487800   0.004899367   2.365540219  -0.000028130  -0.000015190  -0.000020720
0   5.333448166  -0.038878219   7.165971589  -0.000011000   0.000010860   0.000028440
1   2.690750539   1.577282262   2.393385496   0.000000000   0.000015580   0.000018310
1   2.690770723   4.837532366   7.114089414   0.000000000   0.000029460  -0.000035490
1   8.072352796   1.553272009   2.398513425   0.000000000   0.000000390   0.000031570
1   2.690750539   7.873025086   7.120795973   0.000000000  -0.000065490  -0.000050340
1  -0.040757559   6.227040005   2.396764632   0.000014670   0.000017160   0.000020250
1  -0.068572817   2.965578505   7.125343751   0.000002130  -0.000038300  -0.000003170
1   5.422309726   6.226983796   2.396764681  -0.000014670   0.000017160   0.000020250
1   5.450124984   2.965634714   7.125343702  -0.000002130  -0.000038300  -0.000003170
PRIMVEC
  10.688227147  -0.005155362   0.010537884
  -0.004422055   9.269329025   0.014137844
   0.009825239   0.015836321   9.532119961
PRIMCOORD 4
33 1
0   2.718688307   1.469313885  -0.766682069   0.000025600   0.000168450   0.000106860
0   7.911039177   7.769781066   0.835223209   0.000005780   0.000088880  -0.000145870
0   7.820281923   1.840769379  -0.698795310   0.000172220  -0.000239290   0.000037480
0   2.665986551   7.446292174   0.750744920  -0.000046630   0.000263440  -0.000127640
0  -0.277781449   5.935510711  -0.845658624   0.000153050   0.000204100  -0.000221230
0   0.114798404   3.125369235   0.904561588  -0.000043170  -0.000446170  -0.000396040
0   7.870528192   7.623945956   3.987192833   0.000116530  -0.000158420  -0.000133380
0   2.763887982   1.718629508   5.590155621  -0.000279350  -0.000031020   0.000234660
0   2.820769969   7.926701411   3.969428864  -0.000021390  -0.000279360  -0.000231990
0   7.731084467   1.394689017   5.617941208  -0.000330280   0.000128480   0.000094490
0  -0.202518792   3.082070951   4.035388106   0.000276780   0.000073010   0.000207100
0   0.105829719   6.144707905   5.494621956  -0.000281620  -0.000085690   0.000022330
0   5.530391663   6.113263573  -0.760015913   0.000355420  -0.000191720  -0.000194180
0   5.040486887   3.214504291   0.797585078   0.000185270  -0.000298100   0.000237440
0   5.411915914   3.071354037   3.948534637  -0.000035370   0.000207830  -0.000226090
0   5.141413961   6.160200974   5.601431823   0.000195680   0.000446100  -0.000486780
0   0.014608619  -0.050361121   2.556193513   0.000478200  -0.000128300  -0.000466170
0  -0.057791941   0.083562531   5.837214093  -0.000228140  -0.000105690  -0.000454870
0   7.952365273   4.588782781   2.234416249  -0.000038640  -0.000018550   0.000462900
0   2.605735864   4.686458744   7.397393351  -0.000139940  -0.000398150   0.000014500
0   2.597519366   4.657783156   2.817516011   0.000550330   0.000279220  -0.000171990
0   7.984588287   4.622884650   6.728547710  -0.000128730  -0.000102040  -0.000088280
0   5.292861614   0.050069994   2.020587451   0.000758800   0.000232460  -0.000289540
0   5.297362097  -0.080318736   7.474847290  -0.000606840  -0.000254990  -0.000018950
1   2.612623481   1.569670027   2.427722543  -0.000671760   0.000173960  -0.000495940
1   8.084221914   7.728192034   7.144722717  -0.000204200  -0.000403410   0.000014260
1   8.060819017   1.468500456   2.435579988   0.000111180  -0.000010240   0.000194090
1   2.440294133   7.825513553   7.129688299  -0.000190580  -0.000300390   0.001029700
1  -0.062603778   6.182636151   2.300607987  -0.000100560   0.000355730   0.000690370
1  -0.052180093   2.966769203   7.240045324   0.000360820   0.000309690   0.000505510
1   5.288546100   6.189427246   2.423128063  -0.000222400  -0.000151280   0.000448930
1   5.290200417   3.098576533   7.139291830   0.000027720  -0.000078780   0.000176180
0  10.559061928   9.202894998   8.796655510  -0.000203780   0.000750230  -0.000327830
PRIMVEC
  10.641266897   0.000000000   0.000000000
   0.000000000   9.232306946  -0.001484389
   0.000000000  -0.001506322   9.494016212
PRIMCOORD 5
31 1
0   2.761891199   1.424463455  -0.872029334  -0.000022660   0.000009580   0.000000170
0   8.151722741   7.688339293   0.785359737   0.000053120   0.000008300   0.000011040
0   7.879374792   1.424462463  -0.872029334   0.000022660   0.000009580   0.000000170
0   2.489543250   7.688339293   0.785359737  -0.000053120   0.000008300   0.000011040
0   0.000000000   6.116324627  -0.848697746   0.000000000   0.000005150   0.000014680
0   0.000000000   3.037170295   0.990472170   0.000000000  -0.000003670   0.000004770
0   7.878705800   7.779834443   3.972737438   0.000025090  -0.000005290  -0.000000870
0   2.310480794   1.858780217   5.369409316  -0.000006830  -0.000008360   0.000009030
0   2.762560191   7.779834443   3.972737438  -0.000025090  -0.000005290  -0.000000870
0   8.330785197   1.858779225   5.369409316   0.000006830  -0.000008360   0.000009030
0   0.000000000   5.796567853   5.390116642   0.000000000   0.000017710   0.000001450
0   5.320633490   6.436139536  -0.762526222   0.000000000  -0.000012200  -0.000028800
0   5.320633490   3.207512139   0.754918914   0.000000000   0.000001390  -0.000006710
0   5.320633490   2.844243591   3.922910798   0.000000000  -0.000015110   0.000002260
0   5.320633490   5.937028450   5.543343835   0.000000000  -0.000015850  -0.000002070
0   0.000000000   0.180345257   2.720895846   0.000000000   0.000004070   0.000029210
0   0.000000000  -0.070442759   7.148141332   0.000000000  -0.000006630   0.000008660
0   8.097234334   4.580461990   2.657483609   0.000038000   0.000008870  -0.000012540
0   2.685637947   4.602079508   7.471422806  -0.000019780  -0.000010370  -0.000000020
0   2.544031657   4.580461990   2.657483609  -0.000038000   0.000008870  -0.000012540
0   7.955628044   4.602079508   7.471422806   0.000019780  -0.000010370  -0.000000020
0   5.320633490  -0.089629804   1.983448541   0.000000000  -0.000018520  -0.000023360
0   5.320633490   0.028054603   6.568252610   0.000000000  -0.000009270   0.000001730
1   2.740136427   1.518355518   2.284074112  -0.000022900   0.000001290  -0.000007370
1   7.946602121   7.667350686   7.094938005   0.000012570   0.000000330   0.000015300
1   7.901129564   1.518354527   2.284074113   0.000022900   0.000001290  -0.000007370
1   2.694663870   7.667350686   7.094938005  -0.000012570   0.000000330   0.000015300
1   0.000000000   6.302418500   2.295561474   0.000000000   0.000015410   0.000011580
1   0.000000000   3.058272320   7.230639578   0.000000000   0.000019780   0.000021560
1   5.320633490   6.071034933   2.394922955   0.000000000   0.000008730  -0.000043740
1   5.320633490   3.056839851   7.084303116   0.000000000   0.000000330  -0.000020690
PRIMVEC
  10.641428198   0.000000000   0.000000000
   0.000000000   9.232373272  -0.001535027
   0.000000000  -0.001556654   9.493936873
PRIMCOORD 6
31 1
0   2.660350284   1.580098112  -0.991342869   0.000000000  -0.000005660   0.000002770
0   7.981077008   7.411874046   0.760245580   0.000000000   0.000001070   0.000009060
0   7.981077008   1.408509461  -0.755346692   0.000000000  -0.000005440  -0.000012040
0   2.660350284   7.732147787   0.846425247   0.000000000  -0.000002100  -0.000010650
0   0.171648559   6.159748639  -0.787598335   0.000038180  -0.000015240  -0.000012670
0  -0.101992657   3.191680419   0.871266444   0.000032750  -0.000012320   0.000002550
0   7.981076964   7.909861811   3.948132300   0.000000000   0.000011300   0.000015400
0   2.660350328   8.050182918   4.101743858   0.000000000  -0.000021640  -0.000013690
0   7.981076964   1.769712141   5.570844372   0.000000000   0.000028440  -0.000002250
0   0.349348462   2.755476503   4.123672283   0.000013540   0.000010710   0.000003520
0  -0.102861804   6.067413670   5.518907070   0.000029200  -0.000003100   0.000010060
0   5.149065581   6.159742429  -0.787595538  -0.000038180  -0.000015240  -0.000012670
0   5.422706797   3.191686629   0.871263646  -0.000032750  -0.000012320   0.000002550
0   4.971365678   2.755482684   4.123675088  -0.000013540   0.000010710   0.000003520
0   5.423575944   6.067407490   5.518904265  -0.000029200  -0.000003100   0.000010060
0  -0.025412473   0.012337518   2.021605662   0.000026980   0.000008170  -0.000004450
0   0.116613051   0.034390775   6.836243047   0.000005890   0.000003560   0.000019380
0   7.981075522   4.586526888   2.925245590   0.000000000  -0.000004330  -0.000003240
0   2.660351770   4.434731679   6.770439072   0.000000000  -0.000007630  -0.000019630
0   2.660351770   4.684711266   2.345300359   0.000000000   0.000011330  -0.000017600
0   7.981075522   4.704564331   7.510422981   0.000000000  -0.000004250   0.000015200
0   5.346126613   0.012335426   2.021605130  -0.000026980   0.000008170  -0.000004450
0   5.204101089   0.034392867   6.836243579  -0.000005890   0.000003560   0.000019380
1   2.660331814   1.556135666   2.262467592   0.000000000   0.000014560   0.000006280
1   7.981095478   7.775960283   7.096735942   0.000000000   0.000029370  -0.000000350
1   7.981095478   1.557718159   2.408989702   0.000000000   0.000039600   0.000020360
1   2.660331814   7.544802648   7.196113029   0.000000000  -0.000037500   0.000014480
1  -0.034323472   6.179544215   2.396760125   0.000004740   0.000004350  -0.000014060
1  -0.079642704   3.097107895   7.209165188   0.000005370  -0.000019690  -0.000006390
1   5.355037612   6.179488515   2.396760183  -0.000004740   0.000004350  -0.000014060
1   5.400356845   3.097163595   7.209165130  -0.000005370  -0.000019690  -0.000006390
PRIMVEC
  10.600114907  -0.008830542   0.021789091
  -0.007510155   9.278948305  -0.055376179
   0.019532832  -0.056926642   9.479523154
PRIMCOORD 7
31 1
0   2.639155108   1.825590171  -0.903081620   0.000036580   0.000033690   0.000089950
0   8.066395430   6.801357390   0.442155399  -0.000086100   0.000031170  -0.000176790
0   7.921107187   1.449267347  -0.674830962  -0.000020780  -0.000136740  -0.000029930
0   2.520336632   7.930751928   0.672300758  -0.000032630  -0.000047040  -0.000041970
0   0.448267636   5.943471734  -0.837300336  -0.000097570   0.000100330   0.000025800
0  -0.606257090   3.530155783   0.891773688  -0.000132670   0.000125350  -0.000011990
0   8.283627137   8.200368616   3.843355236  -0.000002860   0.000086650  -0.000206840
0   2.301654715   8.304569788   4.051745802   0.000001260  -0.000085240   0.000051900
0   7.960727899   1.713976279   5.687246108   0.000013280   0.000051510  -0.000100730
0   0.336752756   2.327173681   4.101344250  -0.000062490  -0.000036710   0.000104700
0  -0.042604521   6.113760112   5.505197892   0.000060330   0.000036150  -0.000060180
0   4.974742513   6.079836970  -0.822634375  -0.000107980  -0.000097860  -0.000112910
0   5.525638960   3.259566671   0.966869228   0.000050460  -0.000037520   0.000014050
0   4.987575283   2.362105505   4.182058372   0.000055530  -0.000024780  -0.000029320
0   5.525917610   6.024262940   5.707584057  -0.000017720  -0.000050520   0.000010340
0  -0.165176449   0.176260244   1.525185489   0.000015390   0.000088380   0.000107830
0   0.167980011  -0.082443203   7.080334432   0.000076550   0.000169820  -0.000029190
0   8.176456260   4.602716237   3.800043539   0.000014420  -0.000046400   0.000042180
0   2.728713244   4.354184071   6.258187640   0.000079720   0.000103050   0.000018050
0   2.425602033   4.582630266   2.407639353  -0.000168240   0.000042970  -0.000014310
0   5.243115262   6.346021051   2.603366008  -0.000071200  -0.000034270   0.000033550
0   5.483816340   0.101987849   1.403543013   0.000047440  -0.000011960   0.000130090
0   5.135569850  -0.059430245   6.962483054   0.000054890  -0.000066320   0.000163080
1   2.711798284   1.534146008   2.175265251  -0.000063440  -0.000151520  -0.000097330
1   7.945138656   7.897051929   7.000314709   0.000178090  -0.000151680  -0.000380790
1   7.899826892   1.763842045   2.530198417  -0.000032720   0.000193650   0.000131700
1   2.671925462   7.433156928   7.025980471   0.000188200  -0.000085370   0.000132190
1  -0.041934601   6.412003532   2.349558586   0.000105680  -0.000002400   0.000025600
1   0.045917259   3.018766975   7.188369117   0.000024200  -0.000156450   0.000123240
1   8.030293670   4.651041278   7.294616434  -0.000141270   0.000148430   0.000066550
1   5.368392498   3.013156260   7.304203353   0.000035650   0.000011590   0.000021490
PRIMVEC
  10.604058669  -0.025564151   0.003297635
  -0.022218347   9.133101683   0.003180968
   0.003071254   0.003207702   9.470667817
PRIMCOORD 8
30 1
0   2.518726556   1.899783590  -0.877105219   0.000059150   0.000282430   0.000031620
0   7.837560583   7.519347747   0.824328124   0.000256640  -0.000043070  -0.000021050
0   8.049314057   1.531254442  -0.678900978  -0.000116090   0.000279850  -0.000150310
0   2.761171103   7.748307119   0.846706690  -0.000064900   0.000038700  -0.000021630
0   0.332434276   5.612275739  -0.533129508   0.000014150   0.000270570   0.000013830
0   8.167857354   7.754912400   4.034037359  -0.000088530  -0.000128890  -0.000039930
0   2.290454202   8.085434789   4.183435569  -0.000029680   0.000211690  -0.000000000
0   7.896643079   1.663348566   5.621573208  -0.000178590  -0.000131440  -0.000038250
0   0.160991383   2.631148515   3.889183385  -0.000014130  -0.000186900   0.000128510
0  -0.152128026   5.935501453   5.611973280   0.000084820   0.000155090   0.000093760
0   5.064541563   5.938969428  -0.745325885   0.000007500  -0.000063900   0.000129390
0   5.367944335   2.909237882   0.856361039   0.000117120  -0.000194490   0.000037520
0   5.186985772   2.966772354   4.028185353  -0.000087710  -0.000082200   0.000108280
0   5.405966851   6.118243832   5.520074100  -0.000258230   0.000157390   0.000009590
0   0.009419339   0.369071249   1.456607342  -0.000044260  -0.000285310  -0.000196570
0   0.120266012  -0.062505422   6.965334205  -0.000095470   0.000205460  -0.000143440
0   8.198365654   4.475856867   2.391915170   0.000163300  -0.000239180  -0.000042030
0   2.637715348   4.206471668   6.188477051   0.000045170   0.000231870   0.000020910
0   2.508015298   4.611442087   2.206553274   0.000158270  -0.000055970   0.000232470
0   7.955369312   4.667832063   7.489557762   0.000036360   0.000038620  -0.000170420
0   5.301163185  -0.150997021   2.686819937  -0.000190760  -0.000265510  -0.000080850
0   5.049333129   0.057896468   7.043103028   0.000234260   0.000109310   0.000211960
1   2.769832653   1.536391121   2.298015266  -0.000131470   0.000030790  -0.000219660
1   7.865152363   7.713342231   7.177474075   0.000028330   0.000135630   0.000566340
1   7.896783427   1.422186362   2.496723991   0.000056630   0.000574000  -0.000180270
1   2.587456149   7.248767747   7.192267195   0.000059460   0.000107040   0.000293650
1   0.034337584   6.450693490   2.499231285   0.000124120  -0.000431590  -0.000575480
1  -0.098164935   3.019989426   7.079205984  -0.000156700   0.000146680   0.000357350
1   5.353653756   5.930645146   2.400534294   0.000235030  -0.000480390  -0.000339320
1   5.357259127   3.113967259   7.190826339  -0.000223780  -0.000386260  -0.000016000
PRIMVEC
  10.594382463   0.005719091  -0.036783268
   0.004930340   9.132973084  -0.060428027
  -0.032856363  -0.061595706   9.468734038
PRIMCOORD 9
30 1
0   2.646361726   1.582523086  -1.070665572   0.000000190   0.000131750  -0.000036500
0   7.697772119   7.640257693   0.681013454   0.000007430   0.000074940   0.000032270
0   7.918081593   1.400749930  -0.912957449  -0.000043660  -0.000091530  -0.000243800
0   2.964406840   7.764775524   0.726742159   0.000033850   0.000212980   0.000062820
0   0.278791914   6.083672734  -0.804244545   0.000024910   0.000091440   0.000097360
0   0.068086437   3.190074519   0.842615864   0.000024120  -0.000009500  -0.000089980
0   8.208396872   7.884217233   3.870173264  -0.000104830  -0.000099410  -0.000146490
0   2.395829557   7.929462785   3.966141390   0.000044130  -0.000004530  -0.000063570
0   7.688871288   2.133732803   5.336667117   0.000116130  -0.000314000   0.000124260
0   0.235222495   2.442222657   4.050593832   0.000033680   0.000102390   0.000040510
0  -0.256727534   5.784395898   5.479386162   0.000054820   0.000086400   0.000041400
0   5.018176082   5.958974908  -0.858646184  -0.000129450  -0.000108160   0.000022320
0   5.323333046   3.018209239   1.008860695  -0.000016120  -0.000048010  -0.000078640
0   5.559683325   5.741629597   5.376797047  -0.000014030  -0.000089040   0.000055160
0   0.025974901  -0.067329605   1.478026058   0.000084280  -0.000076440  -0.000043830
0   0.012946195  -0.061637814   6.764937988   0.000013090  -0.000159550   0.000047020
0   7.925975134   4.594371941   2.610672109  -0.000157900   0.000064710   0.000211600
0   2.632139055   4.190051315   6.408440604   0.000162000  -0.000196760  -0.000019040
0   2.804692463   4.597048366   2.639838395  -0.000154030   0.000067160  -0.000218700
0   7.912695354   4.594575417   7.935400783  -0.000198620  -0.000107520  -0.000092200
0   5.305746682   0.330689326   2.961939458  -0.000045150   0.000093770   0.000313200
0   5.139425428  -0.066672251   6.763450783  -0.000133530  -0.000146080  -0.000082880
1   2.589041045   1.528630338   2.146795137  -0.000020840  -0.000197520   0.000105180
1   7.894128104   7.548078304   6.997371506   0.000194320   0.000348850   0.000132200
1   8.101215555   1.529580602   2.249777592  -0.000048660  -0.000146230   0.000047560
1   2.586864246   7.324121682   7.018375439   0.000051210   0.000014190   0.000028110
1   0.044239605   6.100858256   2.351807953   0.000046590  -0.000064190  -0.000132390
1  -0.169833082   2.990116293   7.154858418   0.000177960   0.000362870   0.000037140
1   5.348420665   6.326938571   2.326470273   0.000198110  -0.000071300  -0.000033980
1   5.340516684   2.992813920   7.263173067  -0.000199980   0.000278310  -0.000116100
PRIMVEC
  10.662242194   0.010333799  -0.060028016
   0.008843880   9.228668519   0.040738109
  -0.053239325   0.041565700   9.483206245
PRIMCOORD 10
31 1
0   3.029402495   1.491117236  -1.091120740   0.000209160  -0.000099120  -0.000013910
0   7.906414300   7.390149954   0.807644039  -0.000013340   0.000238940  -0.000181940
0   7.541501980   1.158245226  -0.695178290   0.000078810   0.000138200  -0.000107880
0   2.775754567   7.785272354   0.801067857  -0.000235650   0.000294230   0.000156060
0   0.185565714   6.362327566  -0.601072400   0.000209280  -0.000009580  -0.000197240
0  -0.258643865   3.184723210   1.077347787   0.000087500  -0.000017660  -0.000076030
0   8.316747836   8.093729090   3.938054834  -0.000234920  -0.000053620   0.000010150
0   2.357395365   8.125725883   4.015135275  -0.000067380   0.000114470  -0.000180840
0   7.901085476   1.748965362   5.533959816   0.000140220   0.000288600   0.000005260
0   0.516021398   2.095525712   4.133002039  -0.000033770  -0.000143690   0.000095900
0  -0.133010525   6.418724818   5.586826757   0.000103120   0.000233210   0.000183640
0   5.067955423   6.228956621  -0.913774432   0.000168220   0.000082660  -0.000372690
0   5.403402788   3.251426699   0.769256780  -0.000068340  -0.000129010   0.000014060
0   5.003238053   2.919176182   3.971523385   0.000035760   0.000056330  -0.000172730
0   5.747296385   6.061730575   5.380637047  -0.000170660   0.000134100   0.000259420
0   0.081611105   3.304697184   7.210548690  -0.000108300  -0.000249600  -0.000355620
0  -0.088815233   0.079390477   7.837248535  -0.000190940  -0.000220500   0.000025030
0   8.002480828   4.618377197   3.038331729   0.000164970  -0.000222130   0.000123150
0   2.874571353   4.673308803   6.226814614  -0.000098380  -0.000376290  -0.000043650
0   2.574805381   4.667745792   2.295625425   0.000249080  -0.000139840   0.000343770
0   7.896908108   4.729518311   7.910257187  -0.000179570   0.000119420   0.000345550
0   5.332519483  -0.125782109   2.384546556   0.000034090   0.000508910   0.000031950
0   5.093670530   0.016213902   6.414370427   0.000124000   0.000267220  -0.000384750
1   2.814816867   1.565856197   2.038760359   0.000158310   0.000254520   0.000293190
1   7.921413911   7.730921204   7.070927668  -0.000103030  -0.000232630  -0.000014210
1   7.822884920   1.586421904   2.371964596   0.000207320   0.000190420  -0.000058890
1   2.490617883   7.620968199   7.105496673   0.000092500   0.000041740  -0.000173590
1  -0.061374666   6.215262750   2.447596899   0.000113610   0.000089980   0.000182420
1  -0.065412998   0.065438131   1.713332208  -0.000218730  -0.000171450  -0.000221850
1   5.300125906   6.080126926   2.293406833  -0.000311690  -0.001131720  -0.000174670
1   5.444877356   3.121198193   7.060880819  -0.000141230   0.000143870   0.000660970
PRIMVEC
  10.579715352  -0.043884792  -0.039244269
  -0.033470182   9.255943528  -0.025549775
  -0.033149500  -0.027396406   9.462450491
PRIMCOORD 11
31 1
0   3.132083767   1.059074597  -1.170530934  -0.000130870   0.000213050   0.000265540
0   7.874125471   7.657867849   0.784953135  -0.000270680  -0.000123990   0.000833910
0   7.569927330   1.155986859  -0.836958641   0.000439780   0.001040940   0.000301440
0   2.781012502   7.546875357   0.839980024   0.001628550  -0.000433560  -0.000306470
0   0.087095766   6.730146594  -0.771777265  -0.000094560   0.000222690  -0.000183440
0   0.173021460   3.516144526   0.861508475  -0.000078080   0.000577160  -0.000315640
0   8.054095831   7.986639341   3.880940831  -0.000092110   0.000444160   0.000938730
0   2.663565117   8.047345627   3.958176655   0.000910730   0.000587110  -0.000073030
0   7.259665577   2.190481793   5.090911949  -0.000403300   0.000364580   0.000296790
0   0.175062557   2.739325707   3.794036517   0.001380950   0.000942440   0.000628730
0  -0.103600732   5.937519599   5.474255091  -0.000006010   0.000429040   0.000726680
0   5.220709680   6.354152457  -0.851815454   0.001856590   0.000254050   0.000217380
0   5.318688111   3.395663027   1.106558937  -0.000751640  -0.000423160   0.000673380
0  -0.098035785   2.634183007   7.152572825  -0.000039640  -0.000117050   0.000005670
0   5.452805736   5.630518092   5.387891521  -0.000249140  -0.000221280   0.000242840
0   0.085622757   0.067853386   1.683693954  -0.000254750   0.000476570   0.000309350
0   0.261848241  -0.214893478   6.059001378   0.000384980   0.000026490  -0.000698200